
Host: zak_rig

Timers On : Mon May 27 14:39:25 2024
Timers Off: Mon May 27 14:39:28 2024

Wall Time:        3.49 seconds

                                                       Time (seconds)
Module                                       User      System        Wall        Calls

--------------------------------------------------------------------------------------

**************************************************************************************

Host: zak_rig

Timers On : Mon May 27 14:40:13 2024
Timers Off: Mon May 27 14:40:31 2024

Wall Time:       17.84 seconds

                                                       Time (seconds)
Module                                       User      System        Wall        Calls

--------------------------------------------------------------------------------------

**************************************************************************************

Host: zak_rig

Timers On : Mon May 27 14:41:51 2024
Timers Off: Mon May 27 14:41:52 2024

Wall Time:        0.66 seconds

                                                       Time (seconds)
Module                                       User      System        Wall        Calls

--------------------------------------------------------------------------------------

**************************************************************************************

Host: zak_rig

Timers On : Mon May 27 14:42:11 2024
Timers Off: Mon May 27 14:42:11 2024

Wall Time:        0.72 seconds

                                                       Time (seconds)
Module                                       User      System        Wall        Calls

--------------------------------------------------------------------------------------

**************************************************************************************

Host: zak_rig

Timers On : Mon May 27 14:42:48 2024
Timers Off: Mon May 27 14:42:49 2024

Wall Time:        0.65 seconds

                                                       Time (seconds)
Module                                       User      System        Wall        Calls

--------------------------------------------------------------------------------------

**************************************************************************************

Host: zak_rig

Timers On : Mon May 27 14:43:16 2024
Timers Off: Mon May 27 14:44:54 2024

Wall Time:       97.24 seconds

                                                       Time (seconds)
Module                                       User      System        Wall        Calls
Total PK formation time             :      0.000u      0.000s     12.399w     82 calls
Libint2ERI::Libint2ERI              :      0.000u      0.000s      1.418w    243 calls
HF: Form core H                     :      0.000u      0.000s      0.290w     82 calls
HF: Form S/X                        :      0.000u      0.000s      0.038w     82 calls
HF: Guess                           :      0.000u      0.000s      2.592w     82 calls
SAD Guess                           :      0.000u      0.000s      2.545w     82 calls
HF: Form G                          :      0.000u      0.000s      1.113w    785 calls
JK: D                               :      0.000u      0.000s      0.004w    785 calls
JK: USO2AO                          :      0.000u      0.000s      0.001w    785 calls
JK: JK                              :      0.000u      0.000s      1.098w    785 calls
PK computes JK                      :      0.000u      0.000s      1.096w    785 calls
JK: AO2USO                          :      0.000u      0.000s      0.000w    785 calls
HF: Form F                          :      0.000u      0.000s      0.005w    785 calls
HF: Form D                          :      0.000u      0.000s      0.003w    785 calls
HF: DIIS                            :      0.000u      0.000s     17.219w    703 calls
HF: Form C                          :      0.000u      0.000s      0.311w    703 calls
Grad: V T Perturb                   :      0.000u      0.000s      0.107w     79 calls
Grad: S                             :      0.000u      0.000s      0.017w     79 calls
Grad: JK                            :      0.000u      0.000s     28.195w     79 calls
Grad: XC                            :      0.000u      0.000s      0.000w     79 calls

--------------------------------------------------------------------------------------
Total PK formation time             :      0.000u      0.000s     12.399w     82 calls
| Libint2ERI::Libint2ERI            :      0.000u      0.000s      0.855w    164 calls
HF: Form core H                     :      0.000u      0.000s      0.290w     82 calls
HF: Form S/X                        :      0.000u      0.000s      0.038w     82 calls
HF: Guess                           :      0.000u      0.000s      2.592w     82 calls
| SAD Guess                         :      0.000u      0.000s      2.545w     82 calls
HF: Form G                          :      0.000u      0.000s      1.113w    785 calls
| JK: D                             :      0.000u      0.000s      0.004w    785 calls
| JK: USO2AO                        :      0.000u      0.000s      0.001w    785 calls
| JK: JK                            :      0.000u      0.000s      1.098w    785 calls
| | PK computes JK                  :      0.000u      0.000s      1.096w    785 calls
| JK: AO2USO                        :      0.000u      0.000s      0.000w    785 calls
HF: Form F                          :      0.000u      0.000s      0.005w    785 calls
HF: Form D                          :      0.000u      0.000s      0.003w    785 calls
HF: DIIS                            :      0.000u      0.000s     17.219w    703 calls
HF: Form C                          :      0.000u      0.000s      0.311w    703 calls
Grad: V T Perturb                   :      0.000u      0.000s      0.107w     79 calls
Grad: S                             :      0.000u      0.000s      0.017w     79 calls
Grad: JK                            :      0.000u      0.000s     28.195w     79 calls
| Libint2ERI::Libint2ERI            :      0.000u      0.000s      0.563w     79 calls
Grad: XC                            :      0.000u      0.000s      0.000w     79 calls

**************************************************************************************

Host: zak_rig

Timers On : Mon May 27 14:52:46 2024
Timers Off: Mon May 27 14:52:46 2024

Wall Time:        0.61 seconds

                                                       Time (seconds)
Module                                       User      System        Wall        Calls

--------------------------------------------------------------------------------------

**************************************************************************************

Host: zak_rig

Timers On : Mon May 27 14:56:24 2024
Timers Off: Mon May 27 14:56:25 2024

Wall Time:        0.71 seconds

                                                       Time (seconds)
Module                                       User      System        Wall        Calls

--------------------------------------------------------------------------------------

**************************************************************************************

Host: zak_rig

Timers On : Mon May 27 15:05:14 2024
Timers Off: Mon May 27 15:05:14 2024

Wall Time:        0.67 seconds

                                                       Time (seconds)
Module                                       User      System        Wall        Calls

--------------------------------------------------------------------------------------

**************************************************************************************

Host: zak_rig

Timers On : Mon May 27 15:07:02 2024
Timers Off: Mon May 27 15:08:16 2024

Wall Time:       74.01 seconds

                                                       Time (seconds)
Module                                       User      System        Wall        Calls
Total PK formation time             :      0.000u      0.000s     12.975w     82 calls
Libint2ERI::Libint2ERI              :      0.000u      0.000s      1.587w    243 calls
HF: Form core H                     :      0.000u      0.000s      0.287w     82 calls
HF: Form S/X                        :      0.000u      0.000s      0.035w     82 calls
HF: Guess                           :      0.000u      0.000s      2.822w     82 calls
SAD Guess                           :      0.000u      0.000s      2.776w     82 calls
HF: Form G                          :      0.000u      0.000s      1.205w    785 calls
JK: D                               :      0.000u      0.000s      0.005w    785 calls
JK: USO2AO                          :      0.000u      0.000s      0.001w    785 calls
JK: JK                              :      0.000u      0.000s      1.188w    785 calls
PK computes JK                      :      0.000u      0.000s      1.186w    785 calls
JK: AO2USO                          :      0.000u      0.000s      0.000w    785 calls
HF: Form F                          :      0.000u      0.000s      0.005w    785 calls
HF: Form D                          :      0.000u      0.000s      0.004w    785 calls
HF: DIIS                            :      0.000u      0.000s      2.105w    703 calls
HF: Form C                          :      0.000u      0.000s      0.320w    703 calls
Grad: V T Perturb                   :      0.000u      0.000s      0.103w     79 calls
Grad: S                             :      0.000u      0.000s      0.016w     79 calls
Grad: JK                            :      0.000u      0.000s     28.341w     79 calls
Grad: XC                            :      0.000u      0.000s      0.000w     79 calls

--------------------------------------------------------------------------------------
Total PK formation time             :      0.000u      0.000s     12.975w     82 calls
| Libint2ERI::Libint2ERI            :      0.000u      0.000s      0.913w    164 calls
HF: Form core H                     :      0.000u      0.000s      0.287w     82 calls
HF: Form S/X                        :      0.000u      0.000s      0.035w     82 calls
HF: Guess                           :      0.000u      0.000s      2.822w     82 calls
| SAD Guess                         :      0.000u      0.000s      2.776w     82 calls
HF: Form G                          :      0.000u      0.000s      1.205w    785 calls
| JK: D                             :      0.000u      0.000s      0.005w    785 calls
| JK: USO2AO                        :      0.000u      0.000s      0.001w    785 calls
| JK: JK                            :      0.000u      0.000s      1.188w    785 calls
| | PK computes JK                  :      0.000u      0.000s      1.186w    785 calls
| JK: AO2USO                        :      0.000u      0.000s      0.000w    785 calls
HF: Form F                          :      0.000u      0.000s      0.005w    785 calls
HF: Form D                          :      0.000u      0.000s      0.004w    785 calls
HF: DIIS                            :      0.000u      0.000s      2.105w    703 calls
HF: Form C                          :      0.000u      0.000s      0.320w    703 calls
Grad: V T Perturb                   :      0.000u      0.000s      0.103w     79 calls
Grad: S                             :      0.000u      0.000s      0.016w     79 calls
Grad: JK                            :      0.000u      0.000s     28.341w     79 calls
| Libint2ERI::Libint2ERI            :      0.000u      0.000s      0.674w     79 calls
Grad: XC                            :      0.000u      0.000s      0.000w     79 calls

**************************************************************************************

Host: zak_rig

Timers On : Mon May 27 15:09:39 2024
Timers Off: Mon May 27 15:09:40 2024

Wall Time:        0.65 seconds

                                                       Time (seconds)
Module                                       User      System        Wall        Calls

--------------------------------------------------------------------------------------

**************************************************************************************

Host: zak_rig

Timers On : Mon May 27 15:11:04 2024
Timers Off: Mon May 27 15:11:04 2024

Wall Time:        0.70 seconds

                                                       Time (seconds)
Module                                       User      System        Wall        Calls

--------------------------------------------------------------------------------------

**************************************************************************************

Host: zak_rig

Timers On : Mon May 27 15:11:20 2024
Timers Off: Mon May 27 15:11:21 2024

Wall Time:        0.65 seconds

                                                       Time (seconds)
Module                                       User      System        Wall        Calls

--------------------------------------------------------------------------------------

**************************************************************************************

Host: zak_rig

Timers On : Mon May 27 15:18:55 2024
Timers Off: Mon May 27 15:18:56 2024

Wall Time:        0.66 seconds

                                                       Time (seconds)
Module                                       User      System        Wall        Calls

--------------------------------------------------------------------------------------

**************************************************************************************

Host: zak_rig

Timers On : Mon May 27 15:21:14 2024
Timers Off: Mon May 27 15:21:15 2024

Wall Time:        0.67 seconds

                                                       Time (seconds)
Module                                       User      System        Wall        Calls

--------------------------------------------------------------------------------------

**************************************************************************************

Host: zak_rig

Timers On : Mon May 27 15:23:18 2024
Timers Off: Mon May 27 15:23:18 2024

Wall Time:        0.66 seconds

                                                       Time (seconds)
Module                                       User      System        Wall        Calls

--------------------------------------------------------------------------------------

**************************************************************************************

Host: zak_rig

Timers On : Mon May 27 15:23:30 2024
Timers Off: Mon May 27 15:23:31 2024

Wall Time:        0.69 seconds

                                                       Time (seconds)
Module                                       User      System        Wall        Calls

--------------------------------------------------------------------------------------

**************************************************************************************

Host: zak_rig

Timers On : Mon May 27 15:24:55 2024
Timers Off: Mon May 27 15:24:55 2024

Wall Time:        0.63 seconds

                                                       Time (seconds)
Module                                       User      System        Wall        Calls

--------------------------------------------------------------------------------------

**************************************************************************************

Host: zak_rig

Timers On : Mon May 27 15:28:12 2024
Timers Off: Mon May 27 15:28:13 2024

Wall Time:        0.68 seconds

                                                       Time (seconds)
Module                                       User      System        Wall        Calls

--------------------------------------------------------------------------------------

**************************************************************************************

Host: zak_rig

Timers On : Mon May 27 15:35:40 2024
Timers Off: Mon May 27 15:36:52 2024

Wall Time:       72.52 seconds

                                                       Time (seconds)
Module                                       User      System        Wall        Calls
Total PK formation time             :      0.000u      0.000s     13.028w     82 calls
Libint2ERI::Libint2ERI              :      0.000u      0.000s      1.569w    243 calls
HF: Form core H                     :      0.000u      0.000s      0.277w     82 calls
HF: Form S/X                        :      0.000u      0.000s      0.035w     82 calls
HF: Guess                           :      0.000u      0.000s      2.551w     82 calls
SAD Guess                           :      0.000u      0.000s      2.506w     82 calls
HF: Form G                          :      0.000u      0.000s      1.191w    785 calls
JK: D                               :      0.000u      0.000s      0.004w    785 calls
JK: USO2AO                          :      0.000u      0.000s      0.001w    785 calls
JK: JK                              :      0.000u      0.000s      1.176w    785 calls
PK computes JK                      :      0.000u      0.000s      1.174w    785 calls
JK: AO2USO                          :      0.000u      0.000s      0.000w    785 calls
HF: Form F                          :      0.000u      0.000s      0.005w    785 calls
HF: Form D                          :      0.000u      0.000s      0.004w    785 calls
HF: DIIS                            :      0.000u      0.000s      2.020w    703 calls
HF: Form C                          :      0.000u      0.000s      0.312w    703 calls
Grad: V T Perturb                   :      0.000u      0.000s      0.107w     79 calls
Grad: S                             :      0.000u      0.000s      0.017w     79 calls
Grad: JK                            :      0.000u      0.000s     28.313w     79 calls
Grad: XC                            :      0.000u      0.000s      0.000w     79 calls

--------------------------------------------------------------------------------------
Total PK formation time             :      0.000u      0.000s     13.028w     82 calls
| Libint2ERI::Libint2ERI            :      0.000u      0.000s      0.918w    164 calls
HF: Form core H                     :      0.000u      0.000s      0.277w     82 calls
HF: Form S/X                        :      0.000u      0.000s      0.035w     82 calls
HF: Guess                           :      0.000u      0.000s      2.551w     82 calls
| SAD Guess                         :      0.000u      0.000s      2.506w     82 calls
HF: Form G                          :      0.000u      0.000s      1.191w    785 calls
| JK: D                             :      0.000u      0.000s      0.004w    785 calls
| JK: USO2AO                        :      0.000u      0.000s      0.001w    785 calls
| JK: JK                            :      0.000u      0.000s      1.176w    785 calls
| | PK computes JK                  :      0.000u      0.000s      1.174w    785 calls
| JK: AO2USO                        :      0.000u      0.000s      0.000w    785 calls
HF: Form F                          :      0.000u      0.000s      0.005w    785 calls
HF: Form D                          :      0.000u      0.000s      0.004w    785 calls
HF: DIIS                            :      0.000u      0.000s      2.020w    703 calls
HF: Form C                          :      0.000u      0.000s      0.312w    703 calls
Grad: V T Perturb                   :      0.000u      0.000s      0.107w     79 calls
Grad: S                             :      0.000u      0.000s      0.017w     79 calls
Grad: JK                            :      0.000u      0.000s     28.313w     79 calls
| Libint2ERI::Libint2ERI            :      0.000u      0.000s      0.651w     79 calls
Grad: XC                            :      0.000u      0.000s      0.000w     79 calls

**************************************************************************************

Host: zak_rig

Timers On : Mon May 27 15:46:20 2024
Timers Off: Mon May 27 15:47:29 2024

Wall Time:       69.10 seconds

                                                       Time (seconds)
Module                                       User      System        Wall        Calls
Total PK formation time             :      0.000u      0.000s     12.585w     82 calls
Libint2ERI::Libint2ERI              :      0.000u      0.000s      1.396w    243 calls
HF: Form core H                     :      0.000u      0.000s      0.278w     82 calls
HF: Form S/X                        :      0.000u      0.000s      0.034w     82 calls
HF: Guess                           :      0.000u      0.000s      2.356w     82 calls
SAD Guess                           :      0.000u      0.000s      2.313w     82 calls
HF: Form G                          :      0.000u      0.000s      1.121w    785 calls
JK: D                               :      0.000u      0.000s      0.004w    785 calls
JK: USO2AO                          :      0.000u      0.000s      0.001w    785 calls
JK: JK                              :      0.000u      0.000s      1.106w    785 calls
PK computes JK                      :      0.000u      0.000s      1.104w    785 calls
JK: AO2USO                          :      0.000u      0.000s      0.000w    785 calls
HF: Form F                          :      0.000u      0.000s      0.004w    785 calls
HF: Form D                          :      0.000u      0.000s      0.003w    785 calls
HF: DIIS                            :      0.000u      0.000s      1.964w    703 calls
HF: Form C                          :      0.000u      0.000s      0.304w    703 calls
Grad: V T Perturb                   :      0.000u      0.000s      0.102w     79 calls
Grad: S                             :      0.000u      0.000s      0.015w     79 calls
Grad: JK                            :      0.000u      0.000s     27.454w     79 calls
Grad: XC                            :      0.000u      0.000s      0.000w     79 calls

--------------------------------------------------------------------------------------
Total PK formation time             :      0.000u      0.000s     12.585w     82 calls
| Libint2ERI::Libint2ERI            :      0.000u      0.000s      0.843w    164 calls
HF: Form core H                     :      0.000u      0.000s      0.278w     82 calls
HF: Form S/X                        :      0.000u      0.000s      0.034w     82 calls
HF: Guess                           :      0.000u      0.000s      2.356w     82 calls
| SAD Guess                         :      0.000u      0.000s      2.313w     82 calls
HF: Form G                          :      0.000u      0.000s      1.121w    785 calls
| JK: D                             :      0.000u      0.000s      0.004w    785 calls
| JK: USO2AO                        :      0.000u      0.000s      0.001w    785 calls
| JK: JK                            :      0.000u      0.000s      1.106w    785 calls
| | PK computes JK                  :      0.000u      0.000s      1.104w    785 calls
| JK: AO2USO                        :      0.000u      0.000s      0.000w    785 calls
HF: Form F                          :      0.000u      0.000s      0.004w    785 calls
HF: Form D                          :      0.000u      0.000s      0.003w    785 calls
HF: DIIS                            :      0.000u      0.000s      1.964w    703 calls
HF: Form C                          :      0.000u      0.000s      0.304w    703 calls
Grad: V T Perturb                   :      0.000u      0.000s      0.102w     79 calls
Grad: S                             :      0.000u      0.000s      0.015w     79 calls
Grad: JK                            :      0.000u      0.000s     27.454w     79 calls
| Libint2ERI::Libint2ERI            :      0.000u      0.000s      0.553w     79 calls
Grad: XC                            :      0.000u      0.000s      0.000w     79 calls

**************************************************************************************

Host: zak_rig

Timers On : Mon May 27 15:55:42 2024
Timers Off: Mon May 27 16:22:33 2024

Wall Time:     1610.82 seconds

                                                       Time (seconds)
Module                                       User      System        Wall        Calls
Total PK formation time             :      0.000u      0.000s    426.337w    186 calls
Libint2ERI::Libint2ERI              :      0.000u      0.000s      9.280w    554 calls
HF: Form core H                     :      0.000u      0.000s      1.478w    186 calls
HF: Form S/X                        :      0.000u      0.000s      0.222w    186 calls
HF: Guess                           :      0.000u      0.000s     10.632w    186 calls
SAD Guess                           :      0.000u      0.000s     10.524w    186 calls
HF: Form G                          :      0.000u      0.000s    195.553w   2505 calls
JK: D                               :      0.000u      0.000s      0.035w   2505 calls
JK: USO2AO                          :      0.000u      0.000s      0.006w   2505 calls
JK: JK                              :      0.000u      0.000s    195.408w   2505 calls
PK computes JK                      :      0.000u      0.000s    195.391w   2505 calls
AIO synchronize                     :      0.000u      0.000s      0.000w     80 calls
JK: AO2USO                          :      0.000u      0.000s      0.002w   2505 calls
HF: Form F                          :      0.000u      0.000s      0.050w   2505 calls
HF: Form D                          :      0.000u      0.000s      0.031w   2505 calls
HF: DIIS                            :      0.000u      0.000s      7.678w   2319 calls
HF: Form C                          :      0.000u      0.000s      2.376w   2319 calls
Grad: V T Perturb                   :      0.000u      0.000s      1.221w    182 calls
Grad: S                             :      0.000u      0.000s      0.125w    182 calls
Grad: JK                            :      0.000u      0.000s    901.558w    182 calls
Grad: XC                            :      0.000u      0.000s      0.000w    182 calls

--------------------------------------------------------------------------------------
Total PK formation time             :      0.000u      0.000s    426.337w    186 calls
| Libint2ERI::Libint2ERI            :      0.000u      0.000s      6.021w    372 calls
HF: Form core H                     :      0.000u      0.000s      1.478w    186 calls
HF: Form S/X                        :      0.000u      0.000s      0.222w    186 calls
HF: Guess                           :      0.000u      0.000s     10.632w    186 calls
| SAD Guess                         :      0.000u      0.000s     10.524w    186 calls
HF: Form G                          :      0.000u      0.000s    195.553w   2505 calls
| JK: D                             :      0.000u      0.000s      0.035w   2505 calls
| JK: USO2AO                        :      0.000u      0.000s      0.006w   2505 calls
| JK: JK                            :      0.000u      0.000s    195.408w   2505 calls
| | PK computes JK                  :      0.000u      0.000s    195.391w   2505 calls
| | | AIO synchronize               :      0.000u      0.000s      0.000w     80 calls
| JK: AO2USO                        :      0.000u      0.000s      0.002w   2505 calls
HF: Form F                          :      0.000u      0.000s      0.050w   2505 calls
HF: Form D                          :      0.000u      0.000s      0.031w   2505 calls
HF: DIIS                            :      0.000u      0.000s      7.678w   2319 calls
HF: Form C                          :      0.000u      0.000s      2.376w   2319 calls
Grad: V T Perturb                   :      0.000u      0.000s      1.221w    182 calls
Grad: S                             :      0.000u      0.000s      0.125w    182 calls
Grad: JK                            :      0.000u      0.000s    901.558w    182 calls
| Libint2ERI::Libint2ERI            :      0.000u      0.000s      3.260w    182 calls
Grad: XC                            :      0.000u      0.000s      0.000w    182 calls

**************************************************************************************

Host: zak_rig

Timers On : Mon May 27 19:22:15 2024
Timers Off: Mon May 27 19:23:29 2024

Wall Time:       73.71 seconds

                                                       Time (seconds)
Module                                       User      System        Wall        Calls
Total PK formation time             :      0.000u      0.000s     13.082w     82 calls
Libint2ERI::Libint2ERI              :      0.000u      0.000s      1.637w    243 calls
HF: Form core H                     :      0.000u      0.000s      0.307w     82 calls
HF: Form S/X                        :      0.000u      0.000s      0.039w     82 calls
HF: Guess                           :      0.000u      0.000s      2.736w     82 calls
SAD Guess                           :      0.000u      0.000s      2.690w     82 calls
HF: Form G                          :      0.000u      0.000s      1.173w    785 calls
JK: D                               :      0.000u      0.000s      0.005w    785 calls
JK: USO2AO                          :      0.000u      0.000s      0.001w    785 calls
JK: JK                              :      0.000u      0.000s      1.156w    785 calls
PK computes JK                      :      0.000u      0.000s      1.155w    785 calls
JK: AO2USO                          :      0.000u      0.000s      0.000w    785 calls
HF: Form F                          :      0.000u      0.000s      0.005w    785 calls
HF: Form D                          :      0.000u      0.000s      0.004w    785 calls
HF: DIIS                            :      0.000u      0.000s      2.044w    703 calls
HF: Form C                          :      0.000u      0.000s      0.315w    703 calls
Grad: V T Perturb                   :      0.000u      0.000s      0.102w     79 calls
Grad: S                             :      0.000u      0.000s      0.015w     79 calls
Grad: JK                            :      0.000u      0.000s     28.239w     79 calls
Grad: XC                            :      0.000u      0.000s      0.000w     79 calls

--------------------------------------------------------------------------------------
Total PK formation time             :      0.000u      0.000s     13.082w     82 calls
| Libint2ERI::Libint2ERI            :      0.000u      0.000s      0.956w    164 calls
HF: Form core H                     :      0.000u      0.000s      0.307w     82 calls
HF: Form S/X                        :      0.000u      0.000s      0.039w     82 calls
HF: Guess                           :      0.000u      0.000s      2.736w     82 calls
| SAD Guess                         :      0.000u      0.000s      2.690w     82 calls
HF: Form G                          :      0.000u      0.000s      1.173w    785 calls
| JK: D                             :      0.000u      0.000s      0.005w    785 calls
| JK: USO2AO                        :      0.000u      0.000s      0.001w    785 calls
| JK: JK                            :      0.000u      0.000s      1.156w    785 calls
| | PK computes JK                  :      0.000u      0.000s      1.155w    785 calls
| JK: AO2USO                        :      0.000u      0.000s      0.000w    785 calls
HF: Form F                          :      0.000u      0.000s      0.005w    785 calls
HF: Form D                          :      0.000u      0.000s      0.004w    785 calls
HF: DIIS                            :      0.000u      0.000s      2.044w    703 calls
HF: Form C                          :      0.000u      0.000s      0.315w    703 calls
Grad: V T Perturb                   :      0.000u      0.000s      0.102w     79 calls
Grad: S                             :      0.000u      0.000s      0.015w     79 calls
Grad: JK                            :      0.000u      0.000s     28.239w     79 calls
| Libint2ERI::Libint2ERI            :      0.000u      0.000s      0.681w     79 calls
Grad: XC                            :      0.000u      0.000s      0.000w     79 calls

**************************************************************************************

Host: zak_rig

Timers On : Mon May 27 20:08:33 2024
Timers Off: Mon May 27 20:09:52 2024

Wall Time:       78.94 seconds

                                                       Time (seconds)
Module                                       User      System        Wall        Calls
Total PK formation time             :      0.000u      0.000s     13.767w     82 calls
Libint2ERI::Libint2ERI              :      0.000u      0.000s      1.756w    243 calls
HF: Form core H                     :      0.000u      0.000s      0.247w     82 calls
HF: Form S/X                        :      0.000u      0.000s      0.035w     82 calls
HF: Guess                           :      0.000u      0.000s      2.716w     82 calls
SAD Guess                           :      0.000u      0.000s      2.670w     82 calls
HF: Form G                          :      0.000u      0.000s      1.232w    785 calls
JK: D                               :      0.000u      0.000s      0.005w    785 calls
JK: USO2AO                          :      0.000u      0.000s      0.001w    785 calls
JK: JK                              :      0.000u      0.000s      1.213w    785 calls
PK computes JK                      :      0.000u      0.000s      1.211w    785 calls
JK: AO2USO                          :      0.000u      0.000s      0.000w    785 calls
HF: Form F                          :      0.000u      0.000s      0.006w    785 calls
HF: Form D                          :      0.000u      0.000s      0.004w    785 calls
HF: DIIS                            :      0.000u      0.000s      2.223w    703 calls
HF: Form C                          :      0.000u      0.000s      0.336w    703 calls
Grad: V T Perturb                   :      0.000u      0.000s      0.113w     79 calls
Grad: S                             :      0.000u      0.000s      0.017w     79 calls
Grad: JK                            :      0.000u      0.000s     29.956w     79 calls
Grad: XC                            :      0.000u      0.000s      0.000w     79 calls

--------------------------------------------------------------------------------------
Total PK formation time             :      0.000u      0.000s     13.767w     82 calls
| Libint2ERI::Libint2ERI            :      0.000u      0.000s      1.022w    164 calls
HF: Form core H                     :      0.000u      0.000s      0.247w     82 calls
HF: Form S/X                        :      0.000u      0.000s      0.035w     82 calls
HF: Guess                           :      0.000u      0.000s      2.716w     82 calls
| SAD Guess                         :      0.000u      0.000s      2.670w     82 calls
HF: Form G                          :      0.000u      0.000s      1.232w    785 calls
| JK: D                             :      0.000u      0.000s      0.005w    785 calls
| JK: USO2AO                        :      0.000u      0.000s      0.001w    785 calls
| JK: JK                            :      0.000u      0.000s      1.213w    785 calls
| | PK computes JK                  :      0.000u      0.000s      1.211w    785 calls
| JK: AO2USO                        :      0.000u      0.000s      0.000w    785 calls
HF: Form F                          :      0.000u      0.000s      0.006w    785 calls
HF: Form D                          :      0.000u      0.000s      0.004w    785 calls
HF: DIIS                            :      0.000u      0.000s      2.223w    703 calls
HF: Form C                          :      0.000u      0.000s      0.336w    703 calls
Grad: V T Perturb                   :      0.000u      0.000s      0.113w     79 calls
Grad: S                             :      0.000u      0.000s      0.017w     79 calls
Grad: JK                            :      0.000u      0.000s     29.956w     79 calls
| Libint2ERI::Libint2ERI            :      0.000u      0.000s      0.734w     79 calls
Grad: XC                            :      0.000u      0.000s      0.000w     79 calls

**************************************************************************************

Host: zak_rig

Timers On : Mon May 27 20:18:11 2024
Timers Off: Mon May 27 20:19:23 2024

Wall Time:       71.55 seconds

                                                       Time (seconds)
Module                                       User      System        Wall        Calls
Total PK formation time             :      0.000u      0.000s     12.814w     82 calls
Libint2ERI::Libint2ERI              :      0.000u      0.000s      1.521w    243 calls
HF: Form core H                     :      0.000u      0.000s      0.233w     82 calls
HF: Form S/X                        :      0.000u      0.000s      0.033w     82 calls
HF: Guess                           :      0.000u      0.000s      2.431w     82 calls
SAD Guess                           :      0.000u      0.000s      2.387w     82 calls
HF: Form G                          :      0.000u      0.000s      1.127w    785 calls
JK: D                               :      0.000u      0.000s      0.004w    785 calls
JK: USO2AO                          :      0.000u      0.000s      0.001w    785 calls
JK: JK                              :      0.000u      0.000s      1.112w    785 calls
PK computes JK                      :      0.000u      0.000s      1.110w    785 calls
JK: AO2USO                          :      0.000u      0.000s      0.000w    785 calls
HF: Form F                          :      0.000u      0.000s      0.005w    785 calls
HF: Form D                          :      0.000u      0.000s      0.004w    785 calls
HF: DIIS                            :      0.000u      0.000s      1.965w    703 calls
HF: Form C                          :      0.000u      0.000s      0.304w    703 calls
Grad: V T Perturb                   :      0.000u      0.000s      0.100w     79 calls
Grad: S                             :      0.000u      0.000s      0.015w     79 calls
Grad: JK                            :      0.000u      0.000s     27.080w     79 calls
Grad: XC                            :      0.000u      0.000s      0.000w     79 calls

--------------------------------------------------------------------------------------
Total PK formation time             :      0.000u      0.000s     12.814w     82 calls
| Libint2ERI::Libint2ERI            :      0.000u      0.000s      0.949w    164 calls
HF: Form core H                     :      0.000u      0.000s      0.233w     82 calls
HF: Form S/X                        :      0.000u      0.000s      0.033w     82 calls
HF: Guess                           :      0.000u      0.000s      2.431w     82 calls
| SAD Guess                         :      0.000u      0.000s      2.387w     82 calls
HF: Form G                          :      0.000u      0.000s      1.127w    785 calls
| JK: D                             :      0.000u      0.000s      0.004w    785 calls
| JK: USO2AO                        :      0.000u      0.000s      0.001w    785 calls
| JK: JK                            :      0.000u      0.000s      1.112w    785 calls
| | PK computes JK                  :      0.000u      0.000s      1.110w    785 calls
| JK: AO2USO                        :      0.000u      0.000s      0.000w    785 calls
HF: Form F                          :      0.000u      0.000s      0.005w    785 calls
HF: Form D                          :      0.000u      0.000s      0.004w    785 calls
HF: DIIS                            :      0.000u      0.000s      1.965w    703 calls
HF: Form C                          :      0.000u      0.000s      0.304w    703 calls
Grad: V T Perturb                   :      0.000u      0.000s      0.100w     79 calls
Grad: S                             :      0.000u      0.000s      0.015w     79 calls
Grad: JK                            :      0.000u      0.000s     27.080w     79 calls
| Libint2ERI::Libint2ERI            :      0.000u      0.000s      0.573w     79 calls
Grad: XC                            :      0.000u      0.000s      0.000w     79 calls

**************************************************************************************

Host: zak_rig

Timers On : Mon May 27 22:38:24 2024
Timers Off: Mon May 27 22:39:39 2024

Wall Time:       74.70 seconds

                                                       Time (seconds)
Module                                       User      System        Wall        Calls
Total PK formation time             :      0.000u      0.000s     13.271w     82 calls
Libint2ERI::Libint2ERI              :      0.000u      0.000s      1.777w    243 calls
HF: Form core H                     :      0.000u      0.000s      0.228w     82 calls
HF: Form S/X                        :      0.000u      0.000s      0.030w     82 calls
HF: Guess                           :      0.000u      0.000s      2.608w     82 calls
SAD Guess                           :      0.000u      0.000s      2.565w     82 calls
HF: Form G                          :      0.000u      0.000s      1.222w    785 calls
JK: D                               :      0.000u      0.000s      0.005w    785 calls
JK: USO2AO                          :      0.000u      0.000s      0.002w    785 calls
JK: JK                              :      0.000u      0.000s      1.205w    785 calls
PK computes JK                      :      0.000u      0.000s      1.203w    785 calls
JK: AO2USO                          :      0.000u      0.000s      0.000w    785 calls
HF: Form F                          :      0.000u      0.000s      0.005w    785 calls
HF: Form D                          :      0.000u      0.000s      0.004w    785 calls
HF: DIIS                            :      0.000u      0.000s      2.096w    703 calls
HF: Form C                          :      0.000u      0.000s      0.321w    703 calls
Grad: V T Perturb                   :      0.000u      0.000s      0.112w     79 calls
Grad: S                             :      0.000u      0.000s      0.018w     79 calls
Grad: JK                            :      0.000u      0.000s     29.198w     79 calls
Grad: XC                            :      0.000u      0.000s      0.000w     79 calls

--------------------------------------------------------------------------------------
Total PK formation time             :      0.000u      0.000s     13.271w     82 calls
| Libint2ERI::Libint2ERI            :      0.000u      0.000s      1.017w    164 calls
HF: Form core H                     :      0.000u      0.000s      0.228w     82 calls
HF: Form S/X                        :      0.000u      0.000s      0.030w     82 calls
HF: Guess                           :      0.000u      0.000s      2.608w     82 calls
| SAD Guess                         :      0.000u      0.000s      2.565w     82 calls
HF: Form G                          :      0.000u      0.000s      1.222w    785 calls
| JK: D                             :      0.000u      0.000s      0.005w    785 calls
| JK: USO2AO                        :      0.000u      0.000s      0.002w    785 calls
| JK: JK                            :      0.000u      0.000s      1.205w    785 calls
| | PK computes JK                  :      0.000u      0.000s      1.203w    785 calls
| JK: AO2USO                        :      0.000u      0.000s      0.000w    785 calls
HF: Form F                          :      0.000u      0.000s      0.005w    785 calls
HF: Form D                          :      0.000u      0.000s      0.004w    785 calls
HF: DIIS                            :      0.000u      0.000s      2.096w    703 calls
HF: Form C                          :      0.000u      0.000s      0.321w    703 calls
Grad: V T Perturb                   :      0.000u      0.000s      0.112w     79 calls
Grad: S                             :      0.000u      0.000s      0.018w     79 calls
Grad: JK                            :      0.000u      0.000s     29.198w     79 calls
| Libint2ERI::Libint2ERI            :      0.000u      0.000s      0.760w     79 calls
Grad: XC                            :      0.000u      0.000s      0.000w     79 calls

**************************************************************************************

Host: zak_rig

Timers On : Mon May 27 22:47:38 2024
Timers Off: Mon May 27 22:48:55 2024

Wall Time:       76.68 seconds

                                                       Time (seconds)
Module                                       User      System        Wall        Calls
Total PK formation time             :      0.000u      0.000s     12.821w     82 calls
Libint2ERI::Libint2ERI              :      0.000u      0.000s      1.429w    243 calls
HF: Form core H                     :      0.000u      0.000s      0.247w     82 calls
HF: Form S/X                        :      0.000u      0.000s      0.034w     82 calls
HF: Guess                           :      0.000u      0.000s      2.546w     82 calls
SAD Guess                           :      0.000u      0.000s      2.501w     82 calls
HF: Form G                          :      0.000u      0.000s      1.139w    785 calls
JK: D                               :      0.000u      0.000s      0.004w    785 calls
JK: USO2AO                          :      0.000u      0.000s      0.001w    785 calls
JK: JK                              :      0.000u      0.000s      1.122w    785 calls
PK computes JK                      :      0.000u      0.000s      1.121w    785 calls
JK: AO2USO                          :      0.000u      0.000s      0.000w    785 calls
HF: Form F                          :      0.000u      0.000s      0.005w    785 calls
HF: Form D                          :      0.000u      0.000s      0.004w    785 calls
HF: DIIS                            :      0.000u      0.000s      2.039w    703 calls
HF: Form C                          :      0.000u      0.000s      0.315w    703 calls
Grad: V T Perturb                   :      0.000u      0.000s      0.105w     79 calls
Grad: S                             :      0.000u      0.000s      0.016w     79 calls
Grad: JK                            :      0.000u      0.000s     27.504w     79 calls
Grad: XC                            :      0.000u      0.000s      0.000w     79 calls

--------------------------------------------------------------------------------------
Total PK formation time             :      0.000u      0.000s     12.821w     82 calls
| Libint2ERI::Libint2ERI            :      0.000u      0.000s      0.848w    164 calls
HF: Form core H                     :      0.000u      0.000s      0.247w     82 calls
HF: Form S/X                        :      0.000u      0.000s      0.034w     82 calls
HF: Guess                           :      0.000u      0.000s      2.546w     82 calls
| SAD Guess                         :      0.000u      0.000s      2.501w     82 calls
HF: Form G                          :      0.000u      0.000s      1.139w    785 calls
| JK: D                             :      0.000u      0.000s      0.004w    785 calls
| JK: USO2AO                        :      0.000u      0.000s      0.001w    785 calls
| JK: JK                            :      0.000u      0.000s      1.122w    785 calls
| | PK computes JK                  :      0.000u      0.000s      1.121w    785 calls
| JK: AO2USO                        :      0.000u      0.000s      0.000w    785 calls
HF: Form F                          :      0.000u      0.000s      0.005w    785 calls
HF: Form D                          :      0.000u      0.000s      0.004w    785 calls
HF: DIIS                            :      0.000u      0.000s      2.039w    703 calls
HF: Form C                          :      0.000u      0.000s      0.315w    703 calls
Grad: V T Perturb                   :      0.000u      0.000s      0.105w     79 calls
Grad: S                             :      0.000u      0.000s      0.016w     79 calls
Grad: JK                            :      0.000u      0.000s     27.504w     79 calls
| Libint2ERI::Libint2ERI            :      0.000u      0.000s      0.581w     79 calls
Grad: XC                            :      0.000u      0.000s      0.000w     79 calls

**************************************************************************************

Host: zak_rig

Timers On : Mon May 27 22:51:12 2024
Timers Off: Mon May 27 22:51:13 2024

Wall Time:        0.69 seconds

                                                       Time (seconds)
Module                                       User      System        Wall        Calls

--------------------------------------------------------------------------------------

**************************************************************************************

Host: zak_rig

Timers On : Mon May 27 22:51:29 2024
Timers Off: Mon May 27 22:51:49 2024

Wall Time:       19.43 seconds

                                                       Time (seconds)
Module                                       User      System        Wall        Calls
Total PK formation time             :      0.000u      0.000s      2.453w     19 calls
Libint2ERI::Libint2ERI              :      0.000u      0.000s      0.434w     55 calls
HF: Form core H                     :      0.000u      0.000s      0.052w     18 calls
HF: Form S/X                        :      0.000u      0.000s      0.006w     18 calls
HF: Guess                           :      0.000u      0.000s      0.662w     18 calls
SAD Guess                           :      0.000u      0.000s      0.651w     18 calls
HF: Form G                          :      0.000u      0.000s      0.164w    176 calls
JK: D                               :      0.000u      0.000s      0.001w    176 calls
JK: USO2AO                          :      0.000u      0.000s      0.000w    176 calls
JK: JK                              :      0.000u      0.000s      0.160w    176 calls
PK computes JK                      :      0.000u      0.000s      0.160w    176 calls
JK: AO2USO                          :      0.000u      0.000s      0.000w    176 calls
HF: Form F                          :      0.000u      0.000s      0.001w    176 calls
HF: Form D                          :      0.000u      0.000s      0.001w    176 calls
HF: DIIS                            :      0.000u      0.000s      0.658w    158 calls
HF: Form C                          :      0.000u      0.000s      0.070w    158 calls
Grad: V T Perturb                   :      0.000u      0.000s      0.019w     17 calls
Grad: S                             :      0.000u      0.000s      0.003w     17 calls
Grad: JK                            :      0.000u      0.000s      4.917w     17 calls
Grad: XC                            :      0.000u      0.000s      0.000w     17 calls

--------------------------------------------------------------------------------------
Total PK formation time             :      0.000u      0.000s      2.453w     19 calls
| Libint2ERI::Libint2ERI            :      0.000u      0.000s      0.266w     38 calls
HF: Form core H                     :      0.000u      0.000s      0.052w     18 calls
HF: Form S/X                        :      0.000u      0.000s      0.006w     18 calls
HF: Guess                           :      0.000u      0.000s      0.662w     18 calls
| SAD Guess                         :      0.000u      0.000s      0.651w     18 calls
HF: Form G                          :      0.000u      0.000s      0.164w    176 calls
| JK: D                             :      0.000u      0.000s      0.001w    176 calls
| JK: USO2AO                        :      0.000u      0.000s      0.000w    176 calls
| JK: JK                            :      0.000u      0.000s      0.160w    176 calls
| | PK computes JK                  :      0.000u      0.000s      0.160w    176 calls
| JK: AO2USO                        :      0.000u      0.000s      0.000w    176 calls
HF: Form F                          :      0.000u      0.000s      0.001w    176 calls
HF: Form D                          :      0.000u      0.000s      0.001w    176 calls
HF: DIIS                            :      0.000u      0.000s      0.658w    158 calls
HF: Form C                          :      0.000u      0.000s      0.070w    158 calls
Grad: V T Perturb                   :      0.000u      0.000s      0.019w     17 calls
Grad: S                             :      0.000u      0.000s      0.003w     17 calls
Grad: JK                            :      0.000u      0.000s      4.917w     17 calls
| Libint2ERI::Libint2ERI            :      0.000u      0.000s      0.168w     17 calls
Grad: XC                            :      0.000u      0.000s      0.000w     17 calls

**************************************************************************************

Host: zak_rig

Timers On : Mon May 27 22:56:23 2024
Timers Off: Mon May 27 22:56:24 2024

Wall Time:        0.73 seconds

                                                       Time (seconds)
Module                                       User      System        Wall        Calls

--------------------------------------------------------------------------------------

**************************************************************************************

Host: zak_rig

Timers On : Mon May 27 23:24:55 2024
Timers Off: Mon May 27 23:24:56 2024

Wall Time:        0.63 seconds

                                                       Time (seconds)
Module                                       User      System        Wall        Calls

--------------------------------------------------------------------------------------

**************************************************************************************

Host: zak_rig

Timers On : Mon May 27 23:26:08 2024
Timers Off: Mon May 27 23:26:08 2024

Wall Time:        0.64 seconds

                                                       Time (seconds)
Module                                       User      System        Wall        Calls

--------------------------------------------------------------------------------------

**************************************************************************************

Host: zak_rig

Timers On : Mon May 27 23:30:21 2024
Timers Off: Mon May 27 23:30:22 2024

Wall Time:        0.65 seconds

                                                       Time (seconds)
Module                                       User      System        Wall        Calls

--------------------------------------------------------------------------------------

**************************************************************************************

Host: zak_rig

Timers On : Tue May 28 15:07:08 2024
Timers Off: Tue May 28 15:07:09 2024

Wall Time:        0.84 seconds

                                                       Time (seconds)
Module                                       User      System        Wall        Calls

--------------------------------------------------------------------------------------

**************************************************************************************

Host: zak_rig

Timers On : Tue May 28 15:08:31 2024
Timers Off: Tue May 28 15:08:32 2024

Wall Time:        0.68 seconds

                                                       Time (seconds)
Module                                       User      System        Wall        Calls

--------------------------------------------------------------------------------------

**************************************************************************************

Host: zak_rig

Timers On : Tue May 28 15:10:50 2024
Timers Off: Tue May 28 15:10:51 2024

Wall Time:        0.67 seconds

                                                       Time (seconds)
Module                                       User      System        Wall        Calls

--------------------------------------------------------------------------------------

**************************************************************************************

Host: zak_rig

Timers On : Tue May 28 15:13:28 2024
Timers Off: Tue May 28 15:13:29 2024

Wall Time:        0.67 seconds

                                                       Time (seconds)
Module                                       User      System        Wall        Calls

--------------------------------------------------------------------------------------

**************************************************************************************

Host: zak_rig

Timers On : Tue May 28 15:15:16 2024
Timers Off: Tue May 28 15:15:17 2024

Wall Time:        0.68 seconds

                                                       Time (seconds)
Module                                       User      System        Wall        Calls

--------------------------------------------------------------------------------------

**************************************************************************************

Host: zak_rig

Timers On : Tue May 28 15:16:05 2024
Timers Off: Tue May 28 15:16:06 2024

Wall Time:        0.70 seconds

                                                       Time (seconds)
Module                                       User      System        Wall        Calls

--------------------------------------------------------------------------------------

**************************************************************************************

Host: zak_rig

Timers On : Tue May 28 15:17:19 2024
Timers Off: Tue May 28 15:17:20 2024

Wall Time:        0.65 seconds

                                                       Time (seconds)
Module                                       User      System        Wall        Calls

--------------------------------------------------------------------------------------

**************************************************************************************

Host: zak_rig

Timers On : Tue May 28 15:21:33 2024
Timers Off: Tue May 28 15:21:33 2024

Wall Time:        0.66 seconds

                                                       Time (seconds)
Module                                       User      System        Wall        Calls

--------------------------------------------------------------------------------------

**************************************************************************************

Host: zak_rig

Timers On : Tue May 28 15:22:56 2024
Timers Off: Tue May 28 15:22:57 2024

Wall Time:        0.70 seconds

                                                       Time (seconds)
Module                                       User      System        Wall        Calls

--------------------------------------------------------------------------------------

**************************************************************************************

Host: zak_rig

Timers On : Tue May 28 15:25:52 2024
Timers Off: Tue May 28 15:25:52 2024

Wall Time:        0.66 seconds

                                                       Time (seconds)
Module                                       User      System        Wall        Calls

--------------------------------------------------------------------------------------

**************************************************************************************

Host: zak_rig

Timers On : Tue May 28 15:27:02 2024
Timers Off: Tue May 28 15:27:02 2024

Wall Time:        0.66 seconds

                                                       Time (seconds)
Module                                       User      System        Wall        Calls

--------------------------------------------------------------------------------------

**************************************************************************************

Host: zak_rig

Timers On : Tue May 28 15:31:43 2024
Timers Off: Tue May 28 15:32:55 2024

Wall Time:       71.71 seconds

                                                       Time (seconds)
Module                                       User      System        Wall        Calls
Total PK formation time             :      0.000u      0.000s     12.790w     82 calls
Libint2ERI::Libint2ERI              :      0.000u      0.000s      1.461w    243 calls
HF: Form core H                     :      0.000u      0.000s      0.290w     82 calls
HF: Form S/X                        :      0.000u      0.000s      0.036w     82 calls
HF: Guess                           :      0.000u      0.000s      2.692w     82 calls
SAD Guess                           :      0.000u      0.000s      2.647w     82 calls
HF: Form G                          :      0.000u      0.000s      1.176w    785 calls
JK: D                               :      0.000u      0.000s      0.005w    785 calls
JK: USO2AO                          :      0.000u      0.000s      0.001w    785 calls
JK: JK                              :      0.000u      0.000s      1.160w    785 calls
PK computes JK                      :      0.000u      0.000s      1.158w    785 calls
JK: AO2USO                          :      0.000u      0.000s      0.000w    785 calls
HF: Form F                          :      0.000u      0.000s      0.005w    785 calls
HF: Form D                          :      0.000u      0.000s      0.004w    785 calls
HF: DIIS                            :      0.000u      0.000s      3.726w    703 calls
HF: Form C                          :      0.000u      0.000s      0.312w    703 calls
Grad: V T Perturb                   :      0.000u      0.000s      0.104w     79 calls
Grad: S                             :      0.000u      0.000s      0.016w     79 calls
Grad: JK                            :      0.000u      0.000s     27.848w     79 calls
Grad: XC                            :      0.000u      0.000s      0.000w     79 calls

--------------------------------------------------------------------------------------
Total PK formation time             :      0.000u      0.000s     12.790w     82 calls
| Libint2ERI::Libint2ERI            :      0.000u      0.000s      0.868w    164 calls
HF: Form core H                     :      0.000u      0.000s      0.290w     82 calls
HF: Form S/X                        :      0.000u      0.000s      0.036w     82 calls
HF: Guess                           :      0.000u      0.000s      2.692w     82 calls
| SAD Guess                         :      0.000u      0.000s      2.647w     82 calls
HF: Form G                          :      0.000u      0.000s      1.176w    785 calls
| JK: D                             :      0.000u      0.000s      0.005w    785 calls
| JK: USO2AO                        :      0.000u      0.000s      0.001w    785 calls
| JK: JK                            :      0.000u      0.000s      1.160w    785 calls
| | PK computes JK                  :      0.000u      0.000s      1.158w    785 calls
| JK: AO2USO                        :      0.000u      0.000s      0.000w    785 calls
HF: Form F                          :      0.000u      0.000s      0.005w    785 calls
HF: Form D                          :      0.000u      0.000s      0.004w    785 calls
HF: DIIS                            :      0.000u      0.000s      3.726w    703 calls
HF: Form C                          :      0.000u      0.000s      0.312w    703 calls
Grad: V T Perturb                   :      0.000u      0.000s      0.104w     79 calls
Grad: S                             :      0.000u      0.000s      0.016w     79 calls
Grad: JK                            :      0.000u      0.000s     27.848w     79 calls
| Libint2ERI::Libint2ERI            :      0.000u      0.000s      0.593w     79 calls
Grad: XC                            :      0.000u      0.000s      0.000w     79 calls

**************************************************************************************

Host: zak_rig

Timers On : Tue May 28 15:44:25 2024
Timers Off: Tue May 28 15:45:39 2024

Wall Time:       73.59 seconds

                                                       Time (seconds)
Module                                       User      System        Wall        Calls
Total PK formation time             :      0.000u      0.000s     13.567w     82 calls
Libint2ERI::Libint2ERI              :      0.000u      0.000s      1.732w    243 calls
HF: Form core H                     :      0.000u      0.000s      0.299w     82 calls
HF: Form S/X                        :      0.000u      0.000s      0.036w     82 calls
HF: Guess                           :      0.000u      0.000s      2.736w     82 calls
SAD Guess                           :      0.000u      0.000s      2.689w     82 calls
HF: Form G                          :      0.000u      0.000s      1.209w    785 calls
JK: D                               :      0.000u      0.000s      0.005w    785 calls
JK: USO2AO                          :      0.000u      0.000s      0.001w    785 calls
JK: JK                              :      0.000u      0.000s      1.191w    785 calls
PK computes JK                      :      0.000u      0.000s      1.189w    785 calls
JK: AO2USO                          :      0.000u      0.000s      0.000w    785 calls
HF: Form F                          :      0.000u      0.000s      0.006w    785 calls
HF: Form D                          :      0.000u      0.000s      0.004w    785 calls
HF: DIIS                            :      0.000u      0.000s      2.145w    703 calls
HF: Form C                          :      0.000u      0.000s      0.323w    703 calls
Grad: V T Perturb                   :      0.000u      0.000s      0.103w     79 calls
Grad: S                             :      0.000u      0.000s      0.016w     79 calls
Grad: JK                            :      0.000u      0.000s     28.652w     79 calls
Grad: XC                            :      0.000u      0.000s      0.000w     79 calls

--------------------------------------------------------------------------------------
Total PK formation time             :      0.000u      0.000s     13.567w     82 calls
| Libint2ERI::Libint2ERI            :      0.000u      0.000s      1.074w    164 calls
HF: Form core H                     :      0.000u      0.000s      0.299w     82 calls
HF: Form S/X                        :      0.000u      0.000s      0.036w     82 calls
HF: Guess                           :      0.000u      0.000s      2.736w     82 calls
| SAD Guess                         :      0.000u      0.000s      2.689w     82 calls
HF: Form G                          :      0.000u      0.000s      1.209w    785 calls
| JK: D                             :      0.000u      0.000s      0.005w    785 calls
| JK: USO2AO                        :      0.000u      0.000s      0.001w    785 calls
| JK: JK                            :      0.000u      0.000s      1.191w    785 calls
| | PK computes JK                  :      0.000u      0.000s      1.189w    785 calls
| JK: AO2USO                        :      0.000u      0.000s      0.000w    785 calls
HF: Form F                          :      0.000u      0.000s      0.006w    785 calls
HF: Form D                          :      0.000u      0.000s      0.004w    785 calls
HF: DIIS                            :      0.000u      0.000s      2.145w    703 calls
HF: Form C                          :      0.000u      0.000s      0.323w    703 calls
Grad: V T Perturb                   :      0.000u      0.000s      0.103w     79 calls
Grad: S                             :      0.000u      0.000s      0.016w     79 calls
Grad: JK                            :      0.000u      0.000s     28.652w     79 calls
| Libint2ERI::Libint2ERI            :      0.000u      0.000s      0.658w     79 calls
Grad: XC                            :      0.000u      0.000s      0.000w     79 calls

**************************************************************************************

Host: zak_rig

Timers On : Tue May 28 15:51:02 2024
Timers Off: Tue May 28 15:52:12 2024

Wall Time:       69.26 seconds

                                                       Time (seconds)
Module                                       User      System        Wall        Calls
Total PK formation time             :      0.000u      0.000s     12.206w     82 calls
Libint2ERI::Libint2ERI              :      0.000u      0.000s      1.349w    243 calls
HF: Form core H                     :      0.000u      0.000s      0.280w     82 calls
HF: Form S/X                        :      0.000u      0.000s      0.032w     82 calls
HF: Guess                           :      0.000u      0.000s      2.331w     82 calls
SAD Guess                           :      0.000u      0.000s      2.289w     82 calls
HF: Form G                          :      0.000u      0.000s      1.094w    785 calls
JK: D                               :      0.000u      0.000s      0.004w    785 calls
JK: USO2AO                          :      0.000u      0.000s      0.001w    785 calls
JK: JK                              :      0.000u      0.000s      1.080w    785 calls
PK computes JK                      :      0.000u      0.000s      1.078w    785 calls
JK: AO2USO                          :      0.000u      0.000s      0.000w    785 calls
HF: Form F                          :      0.000u      0.000s      0.004w    785 calls
HF: Form D                          :      0.000u      0.000s      0.003w    785 calls
HF: DIIS                            :      0.000u      0.000s      1.876w    703 calls
HF: Form C                          :      0.000u      0.000s      0.300w    703 calls
Grad: V T Perturb                   :      0.000u      0.000s      0.096w     79 calls
Grad: S                             :      0.000u      0.000s      0.014w     79 calls
Grad: JK                            :      0.000u      0.000s     26.551w     79 calls
Grad: XC                            :      0.000u      0.000s      0.000w     79 calls

--------------------------------------------------------------------------------------
Total PK formation time             :      0.000u      0.000s     12.206w     82 calls
| Libint2ERI::Libint2ERI            :      0.000u      0.000s      0.803w    164 calls
HF: Form core H                     :      0.000u      0.000s      0.280w     82 calls
HF: Form S/X                        :      0.000u      0.000s      0.032w     82 calls
HF: Guess                           :      0.000u      0.000s      2.331w     82 calls
| SAD Guess                         :      0.000u      0.000s      2.289w     82 calls
HF: Form G                          :      0.000u      0.000s      1.094w    785 calls
| JK: D                             :      0.000u      0.000s      0.004w    785 calls
| JK: USO2AO                        :      0.000u      0.000s      0.001w    785 calls
| JK: JK                            :      0.000u      0.000s      1.080w    785 calls
| | PK computes JK                  :      0.000u      0.000s      1.078w    785 calls
| JK: AO2USO                        :      0.000u      0.000s      0.000w    785 calls
HF: Form F                          :      0.000u      0.000s      0.004w    785 calls
HF: Form D                          :      0.000u      0.000s      0.003w    785 calls
HF: DIIS                            :      0.000u      0.000s      1.876w    703 calls
HF: Form C                          :      0.000u      0.000s      0.300w    703 calls
Grad: V T Perturb                   :      0.000u      0.000s      0.096w     79 calls
Grad: S                             :      0.000u      0.000s      0.014w     79 calls
Grad: JK                            :      0.000u      0.000s     26.551w     79 calls
| Libint2ERI::Libint2ERI            :      0.000u      0.000s      0.547w     79 calls
Grad: XC                            :      0.000u      0.000s      0.000w     79 calls

**************************************************************************************

Host: zak_rig

Timers On : Tue May 28 16:43:12 2024
Timers Off: Tue May 28 16:44:21 2024

Wall Time:       68.91 seconds

                                                       Time (seconds)
Module                                       User      System        Wall        Calls
Total PK formation time             :      0.000u      0.000s     12.344w     82 calls
Libint2ERI::Libint2ERI              :      0.000u      0.000s      1.343w    243 calls
HF: Form core H                     :      0.000u      0.000s      0.284w     82 calls
HF: Form S/X                        :      0.000u      0.000s      0.029w     82 calls
HF: Guess                           :      0.000u      0.000s      2.393w     82 calls
SAD Guess                           :      0.000u      0.000s      2.351w     82 calls
HF: Form G                          :      0.000u      0.000s      1.096w    785 calls
JK: D                               :      0.000u      0.000s      0.004w    785 calls
JK: USO2AO                          :      0.000u      0.000s      0.001w    785 calls
JK: JK                              :      0.000u      0.000s      1.081w    785 calls
PK computes JK                      :      0.000u      0.000s      1.080w    785 calls
JK: AO2USO                          :      0.000u      0.000s      0.000w    785 calls
HF: Form F                          :      0.000u      0.000s      0.004w    785 calls
HF: Form D                          :      0.000u      0.000s      0.003w    785 calls
HF: DIIS                            :      0.000u      0.000s      1.917w    703 calls
HF: Form C                          :      0.000u      0.000s      0.300w    703 calls
Grad: V T Perturb                   :      0.000u      0.000s      0.097w     79 calls
Grad: S                             :      0.000u      0.000s      0.015w     79 calls
Grad: JK                            :      0.000u      0.000s     26.770w     79 calls
Grad: XC                            :      0.000u      0.000s      0.000w     79 calls

--------------------------------------------------------------------------------------
Total PK formation time             :      0.000u      0.000s     12.344w     82 calls
| Libint2ERI::Libint2ERI            :      0.000u      0.000s      0.805w    164 calls
HF: Form core H                     :      0.000u      0.000s      0.284w     82 calls
HF: Form S/X                        :      0.000u      0.000s      0.029w     82 calls
HF: Guess                           :      0.000u      0.000s      2.393w     82 calls
| SAD Guess                         :      0.000u      0.000s      2.351w     82 calls
HF: Form G                          :      0.000u      0.000s      1.096w    785 calls
| JK: D                             :      0.000u      0.000s      0.004w    785 calls
| JK: USO2AO                        :      0.000u      0.000s      0.001w    785 calls
| JK: JK                            :      0.000u      0.000s      1.081w    785 calls
| | PK computes JK                  :      0.000u      0.000s      1.080w    785 calls
| JK: AO2USO                        :      0.000u      0.000s      0.000w    785 calls
HF: Form F                          :      0.000u      0.000s      0.004w    785 calls
HF: Form D                          :      0.000u      0.000s      0.003w    785 calls
HF: DIIS                            :      0.000u      0.000s      1.917w    703 calls
HF: Form C                          :      0.000u      0.000s      0.300w    703 calls
Grad: V T Perturb                   :      0.000u      0.000s      0.097w     79 calls
Grad: S                             :      0.000u      0.000s      0.015w     79 calls
Grad: JK                            :      0.000u      0.000s     26.770w     79 calls
| Libint2ERI::Libint2ERI            :      0.000u      0.000s      0.538w     79 calls
Grad: XC                            :      0.000u      0.000s      0.000w     79 calls

**************************************************************************************

Host: zak_rig

Timers On : Tue May 28 16:49:46 2024
Timers Off: Tue May 28 16:50:56 2024

Wall Time:       70.84 seconds

                                                       Time (seconds)
Module                                       User      System        Wall        Calls
Total PK formation time             :      0.000u      0.000s     12.591w     82 calls
Libint2ERI::Libint2ERI              :      0.000u      0.000s      1.389w    243 calls
HF: Form core H                     :      0.000u      0.000s      0.286w     82 calls
HF: Form S/X                        :      0.000u      0.000s      0.034w     82 calls
HF: Guess                           :      0.000u      0.000s      2.378w     82 calls
SAD Guess                           :      0.000u      0.000s      2.334w     82 calls
HF: Form G                          :      0.000u      0.000s      1.108w    785 calls
JK: D                               :      0.000u      0.000s      0.004w    785 calls
JK: USO2AO                          :      0.000u      0.000s      0.001w    785 calls
JK: JK                              :      0.000u      0.000s      1.093w    785 calls
PK computes JK                      :      0.000u      0.000s      1.091w    785 calls
JK: AO2USO                          :      0.000u      0.000s      0.000w    785 calls
HF: Form F                          :      0.000u      0.000s      0.005w    785 calls
HF: Form D                          :      0.000u      0.000s      0.004w    785 calls
HF: DIIS                            :      0.000u      0.000s      2.021w    703 calls
HF: Form C                          :      0.000u      0.000s      0.341w    703 calls
Grad: V T Perturb                   :      0.000u      0.000s      0.102w     79 calls
Grad: S                             :      0.000u      0.000s      0.016w     79 calls
Grad: JK                            :      0.000u      0.000s     27.402w     79 calls
Grad: XC                            :      0.000u      0.000s      0.000w     79 calls

--------------------------------------------------------------------------------------
Total PK formation time             :      0.000u      0.000s     12.591w     82 calls
| Libint2ERI::Libint2ERI            :      0.000u      0.000s      0.827w    164 calls
HF: Form core H                     :      0.000u      0.000s      0.286w     82 calls
HF: Form S/X                        :      0.000u      0.000s      0.034w     82 calls
HF: Guess                           :      0.000u      0.000s      2.378w     82 calls
| SAD Guess                         :      0.000u      0.000s      2.334w     82 calls
HF: Form G                          :      0.000u      0.000s      1.108w    785 calls
| JK: D                             :      0.000u      0.000s      0.004w    785 calls
| JK: USO2AO                        :      0.000u      0.000s      0.001w    785 calls
| JK: JK                            :      0.000u      0.000s      1.093w    785 calls
| | PK computes JK                  :      0.000u      0.000s      1.091w    785 calls
| JK: AO2USO                        :      0.000u      0.000s      0.000w    785 calls
HF: Form F                          :      0.000u      0.000s      0.005w    785 calls
HF: Form D                          :      0.000u      0.000s      0.004w    785 calls
HF: DIIS                            :      0.000u      0.000s      2.021w    703 calls
HF: Form C                          :      0.000u      0.000s      0.341w    703 calls
Grad: V T Perturb                   :      0.000u      0.000s      0.102w     79 calls
Grad: S                             :      0.000u      0.000s      0.016w     79 calls
Grad: JK                            :      0.000u      0.000s     27.402w     79 calls
| Libint2ERI::Libint2ERI            :      0.000u      0.000s      0.562w     79 calls
Grad: XC                            :      0.000u      0.000s      0.000w     79 calls

**************************************************************************************

Host: zak_rig

Timers On : Tue May 28 19:05:10 2024
Timers Off: Tue May 28 19:06:20 2024

Wall Time:       69.73 seconds

                                                       Time (seconds)
Module                                       User      System        Wall        Calls
Total PK formation time             :      0.000u      0.000s     12.707w     82 calls
[...]

                                                       Time (seconds)
Module                                       User      System        Wall        Calls
Total PK formation time             :      0.000u      0.000s     13.104w     82 calls
Libint2ERI::Libint2ERI              :      0.000u      0.000s      1.567w    243 calls
HF: Form core H                     :      0.000u      0.000s      0.311w     82 calls
HF: Form S/X                        :      0.000u      0.000s      0.036w     82 calls
HF: Guess                           :      0.000u      0.000s      2.641w     82 calls
SAD Guess                           :      0.000u      0.000s      2.597w     82 calls
HF: Form G                          :      0.000u      0.000s      1.183w    785 calls
JK: D                               :      0.000u      0.000s      0.004w    785 calls
JK: USO2AO                          :      0.000u      0.000s      0.002w    785 calls
JK: JK                              :      0.000u      0.000s      1.167w    785 calls
PK computes JK                      :      0.000u      0.000s      1.165w    785 calls
JK: AO2USO                          :      0.000u      0.000s      0.000w    785 calls
HF: Form F                          :      0.000u      0.000s      0.005w    785 calls
HF: Form D                          :      0.000u      0.000s      0.004w    785 calls
HF: DIIS                            :      0.000u      0.000s      1.987w    703 calls
HF: Form C                          :      0.000u      0.000s      0.306w    703 calls
Grad: V T Perturb                   :      0.000u      0.000s      0.104w     79 calls
Grad: S                             :      0.000u      0.000s      0.016w     79 calls
Grad: JK                            :      0.000u      0.000s     27.946w     79 calls
Grad: XC                            :      0.000u      0.000s      0.000w     79 calls

--------------------------------------------------------------------------------------
Total PK formation time             :      0.000u      0.000s     13.104w     82 calls
| Libint2ERI::Libint2ERI            :      0.000u      0.000s      0.940w    164 calls
HF: Form core H                     :      0.000u      0.000s      0.311w     82 calls
HF: Form S/X                        :      0.000u      0.000s      0.036w     82 calls
HF: Guess                           :      0.000u      0.000s      2.641w     82 calls
| SAD Guess                         :      0.000u      0.000s      2.597w     82 calls
HF: Form G                          :      0.000u      0.000s      1.183w    785 calls
| JK: D                             :      0.000u      0.000s      0.004w    785 calls
| JK: USO2AO                        :      0.000u      0.000s      0.002w    785 calls
| JK: JK                            :      0.000u      0.000s      1.167w    785 calls
| | PK computes JK                  :      0.000u      0.000s      1.165w    785 calls
| JK: AO2USO                        :      0.000u      0.000s      0.000w    785 calls
HF: Form F                          :      0.000u      0.000s      0.005w    785 calls
HF: Form D                          :      0.000u      0.000s      0.004w    785 calls
HF: DIIS                            :      0.000u      0.000s      1.987w    703 calls
HF: Form C                          :      0.000u      0.000s      0.306w    703 calls
Grad: V T Perturb                   :      0.000u      0.000s      0.104w     79 calls
Grad: S                             :      0.000u      0.000s      0.016w     79 calls
Grad: JK                            :      0.000u      0.000s     27.946w     79 calls
| Libint2ERI::Libint2ERI            :      0.000u      0.000s      0.627w     79 calls
Grad: XC                            :      0.000u      0.000s      0.000w     79 calls

**************************************************************************************

Host: zak_rig

Timers On : Tue May 28 21:04:58 2024
Timers Off: Tue May 28 21:06:08 2024

Wall Time:       70.87 seconds

                                                       Time (seconds)
Module                                       User      System        Wall        Calls
Total PK formation time             :      0.000u      0.000s     12.640w     82 calls
Libint2ERI::Libint2ERI              :      0.000u      0.000s      1.559w    243 calls
HF: Form core H                     :      0.000u      0.000s      0.279w     82 calls
HF: Form S/X                        :      0.000u      0.000s      0.032w     82 calls
HF: Guess                           :      0.000u      0.000s      2.732w     82 calls
SAD Guess                           :      0.000u      0.000s      2.689w     82 calls
HF: Form G                          :      0.000u      0.000s      1.155w    785 calls
JK: D                               :      0.000u      0.000s      0.004w    785 calls
JK: USO2AO                          :      0.000u      0.000s      0.002w    785 calls
JK: JK                              :      0.000u      0.000s      1.138w    785 calls
PK computes JK                      :      0.000u      0.000s      1.137w    785 calls
JK: AO2USO                          :      0.000u      0.000s      0.000w    785 calls
HF: Form F                          :      0.000u      0.000s      0.005w    785 calls
HF: Form D                          :      0.000u      0.000s      0.004w    785 calls
HF: DIIS                            :      0.000u      0.000s      2.065w    703 calls
HF: Form C                          :      0.000u      0.000s      0.304w    703 calls
Grad: V T Perturb                   :      0.000u      0.000s      0.100w     79 calls
Grad: S                             :      0.000u      0.000s      0.016w     79 calls
Grad: JK                            :      0.000u      0.000s     26.973w     79 calls
Grad: XC                            :      0.000u      0.000s      0.000w     79 calls

--------------------------------------------------------------------------------------
Total PK formation time             :      0.000u      0.000s     12.640w     82 calls
| Libint2ERI::Libint2ERI            :      0.000u      0.000s      0.905w    164 calls
HF: Form core H                     :      0.000u      0.000s      0.279w     82 calls
HF: Form S/X                        :      0.000u      0.000s      0.032w     82 calls
HF: Guess                           :      0.000u      0.000s      2.732w     82 calls
| SAD Guess                         :      0.000u      0.000s      2.689w     82 calls
HF: Form G                          :      0.000u      0.000s      1.155w    785 calls
| JK: D                             :      0.000u      0.000s      0.004w    785 calls
| JK: USO2AO                        :      0.000u      0.000s      0.002w    785 calls
| JK: JK                            :      0.000u      0.000s      1.138w    785 calls
| | PK computes JK                  :      0.000u      0.000s      1.137w    785 calls
| JK: AO2USO                        :      0.000u      0.000s      0.000w    785 calls
HF: Form F                          :      0.000u      0.000s      0.005w    785 calls
HF: Form D                          :      0.000u      0.000s      0.004w    785 calls
HF: DIIS                            :      0.000u      0.000s      2.065w    703 calls
HF: Form C                          :      0.000u      0.000s      0.304w    703 calls
Grad: V T Perturb                   :      0.000u      0.000s      0.100w     79 calls
Grad: S                             :      0.000u      0.000s      0.016w     79 calls
Grad: JK                            :      0.000u      0.000s     26.973w     79 calls
| Libint2ERI::Libint2ERI            :      0.000u      0.000s      0.654w     79 calls
Grad: XC                            :      0.000u      0.000s      0.000w     79 calls

**************************************************************************************

Host: zak_rig

Timers On : Tue May 28 21:13:49 2024
Timers Off: Tue May 28 21:15:07 2024

Wall Time:       78.32 seconds

                                                       Time (seconds)
Module                                       User      System        Wall        Calls
Total PK formation time             :      0.000u      0.000s     13.289w     82 calls
Libint2ERI::Libint2ERI              :      0.000u      0.000s      1.556w    243 calls
HF: Form core H                     :      0.000u      0.000s      0.300w     82 calls
HF: Form S/X                        :      0.000u      0.000s      0.038w     82 calls
HF: Guess                           :      0.000u      0.000s      2.692w     82 calls
SAD Guess                           :      0.000u      0.000s      2.645w     82 calls
HF: Form G                          :      0.000u      0.000s      1.183w    785 calls
JK: D                               :      0.000u      0.000s      0.005w    785 calls
JK: USO2AO                          :      0.000u      0.000s      0.001w    785 calls
JK: JK                              :      0.000u      0.000s      1.166w    785 calls
PK computes JK                      :      0.000u      0.000s      1.164w    785 calls
JK: AO2USO                          :      0.000u      0.000s      0.000w    785 calls
HF: Form F                          :      0.000u      0.000s      0.005w    785 calls
HF: Form D                          :      0.000u      0.000s      0.004w    785 calls
HF: DIIS                            :      0.000u      0.000s      2.121w    703 calls
HF: Form C                          :      0.000u      0.000s      0.323w    703 calls
Grad: V T Perturb                   :      0.000u      0.000s      0.108w     79 calls
Grad: S                             :      0.000u      0.000s      0.017w     79 calls
Grad: JK                            :      0.000u      0.000s     28.733w     79 calls
Grad: XC                            :      0.000u      0.000s      0.000w     79 calls

--------------------------------------------------------------------------------------
Total PK formation time             :      0.000u      0.000s     13.289w     82 calls
| Libint2ERI::Libint2ERI            :      0.000u      0.000s      0.911w    164 calls
HF: Form core H                     :      0.000u      0.000s      0.300w     82 calls
HF: Form S/X                        :      0.000u      0.000s      0.038w     82 calls
HF: Guess                           :      0.000u      0.000s      2.692w     82 calls
| SAD Guess                         :      0.000u      0.000s      2.645w     82 calls
HF: Form G                          :      0.000u      0.000s      1.183w    785 calls
| JK: D                             :      0.000u      0.000s      0.005w    785 calls
| JK: USO2AO                        :      0.000u      0.000s      0.001w    785 calls
| JK: JK                            :      0.000u      0.000s      1.166w    785 calls
| | PK computes JK                  :      0.000u      0.000s      1.164w    785 calls
| JK: AO2USO                        :      0.000u      0.000s      0.000w    785 calls
HF: Form F                          :      0.000u      0.000s      0.005w    785 calls
HF: Form D                          :      0.000u      0.000s      0.004w    785 calls
HF: DIIS                            :      0.000u      0.000s      2.121w    703 calls
HF: Form C                          :      0.000u      0.000s      0.323w    703 calls
Grad: V T Perturb                   :      0.000u      0.000s      0.108w     79 calls
Grad: S                             :      0.000u      0.000s      0.017w     79 calls
Grad: JK                            :      0.000u      0.000s     28.733w     79 calls
| Libint2ERI::Libint2ERI            :      0.000u      0.000s      0.645w     79 calls
Grad: XC                            :      0.000u      0.000s      0.000w     79 calls

**************************************************************************************

Host: zak_rig

Timers On : Tue May 28 21:23:23 2024
Timers Off: Tue May 28 21:24:35 2024

Wall Time:       71.73 seconds

                                                       Time (seconds)
Module                                       User      System        Wall        Calls
Total PK formation time             :      0.000u      0.000s     12.779w     82 calls
Libint2ERI::Libint2ERI              :      0.000u      0.000s      1.511w    243 calls
HF: Form core H                     :      0.000u      0.000s      0.274w     82 calls
HF: Form S/X                        :      0.000u      0.000s      0.032w     82 calls
HF: Guess                           :      0.000u      0.000s      2.541w     82 calls
SAD Guess                           :      0.000u      0.000s      2.497w     82 calls
HF: Form G                          :      0.000u      0.000s      1.260w    785 calls
JK: D                               :      0.000u      0.000s      0.005w    785 calls
JK: USO2AO                          :      0.000u      0.000s      0.001w    785 calls
JK: JK                              :      0.000u      0.000s      1.243w    785 calls
PK computes JK                      :      0.000u      0.000s      1.241w    785 calls
JK: AO2USO                          :      0.000u      0.000s      0.000w    785 calls
HF: Form F                          :      0.000u      0.000s      0.005w    785 calls
HF: Form D                          :      0.000u      0.000s      0.004w    785 calls
HF: DIIS                            :      0.000u      0.000s      2.032w    703 calls
HF: Form C                          :      0.000u      0.000s      0.308w    703 calls
Grad: V T Perturb                   :      0.000u      0.000s      0.103w     79 calls
Grad: S                             :      0.000u      0.000s      0.016w     79 calls
Grad: JK                            :      0.000u      0.000s     27.857w     79 calls
Grad: XC                            :      0.000u      0.000s      0.000w     79 calls

--------------------------------------------------------------------------------------
Total PK formation time             :      0.000u      0.000s     12.779w     82 calls
| Libint2ERI::Libint2ERI            :      0.000u      0.000s      0.882w    164 calls
HF: Form core H                     :      0.000u      0.000s      0.274w     82 calls
HF: Form S/X                        :      0.000u      0.000s      0.032w     82 calls
HF: Guess                           :      0.000u      0.000s      2.541w     82 calls
| SAD Guess                         :      0.000u      0.000s      2.497w     82 calls
HF: Form G                          :      0.000u      0.000s      1.260w    785 calls
| JK: D                             :      0.000u      0.000s      0.005w    785 calls
| JK: USO2AO                        :      0.000u      0.000s      0.001w    785 calls
| JK: JK                            :      0.000u      0.000s      1.243w    785 calls
| | PK computes JK                  :      0.000u      0.000s      1.241w    785 calls
| JK: AO2USO                        :      0.000u      0.000s      0.000w    785 calls
HF: Form F                          :      0.000u      0.000s      0.005w    785 calls
HF: Form D                          :      0.000u      0.000s      0.004w    785 calls
HF: DIIS                            :      0.000u      0.000s      2.032w    703 calls
HF: Form C                          :      0.000u      0.000s      0.308w    703 calls
Grad: V T Perturb                   :      0.000u      0.000s      0.103w     79 calls
Grad: S                             :      0.000u      0.000s      0.016w     79 calls
Grad: JK                            :      0.000u      0.000s     27.857w     79 calls
| Libint2ERI::Libint2ERI            :      0.000u      0.000s      0.629w     79 calls
Grad: XC                            :      0.000u      0.000s      0.000w     79 calls

**************************************************************************************

Host: zak_rig

Timers On : Tue May 28 21:32:55 2024
Timers Off: Tue May 28 21:34:13 2024

Wall Time:       77.58 seconds

                                                       Time (seconds)
Module                                       User      System        Wall        Calls
Total PK formation time             :      0.000u      0.000s     12.644w     82 calls
Libint2ERI::Libint2ERI              :      0.000u      0.000s      1.402w    243 calls
HF: Form core H                     :      0.000u      0.000s      0.285w     82 calls
HF: Form S/X                        :      0.000u      0.000s      0.036w     82 calls
HF: Guess                           :      0.000u      0.000s      2.440w     82 calls
SAD Guess                           :      0.000u      0.000s      2.395w     82 calls
HF: Form G                          :      0.000u      0.000s      1.116w    785 calls
JK: D                               :      0.000u      0.000s      0.004w    785 calls
JK: USO2AO                          :      0.000u      0.000s      0.001w    785 calls
JK: JK                              :      0.000u      0.000s      1.101w    785 calls
PK computes JK                      :      0.000u      0.000s      1.099w    785 calls
JK: AO2USO                          :      0.000u      0.000s      0.000w    785 calls
HF: Form F                          :      0.000u      0.000s      0.005w    785 calls
HF: Form D                          :      0.000u      0.000s      0.004w    785 calls
HF: DIIS                            :      0.000u      0.000s      2.014w    703 calls
HF: Form C                          :      0.000u      0.000s      0.312w    703 calls
Grad: V T Perturb                   :      0.000u      0.000s      0.100w     79 calls
Grad: S                             :      0.000u      0.000s      0.015w     79 calls
Grad: JK                            :      0.000u      0.000s     27.411w     79 calls
Grad: XC                            :      0.000u      0.000s      0.000w     79 calls

--------------------------------------------------------------------------------------
Total PK formation time             :      0.000u      0.000s     12.644w     82 calls
| Libint2ERI::Libint2ERI            :      0.000u      0.000s      0.841w    164 calls
HF: Form core H                     :      0.000u      0.000s      0.285w     82 calls
HF: Form S/X                        :      0.000u      0.000s      0.036w     82 calls
HF: Guess                           :      0.000u      0.000s      2.440w     82 calls
| SAD Guess                         :      0.000u      0.000s      2.395w     82 calls
HF: Form G                          :      0.000u      0.000s      1.116w    785 calls
| JK: D                             :      0.000u      0.000s      0.004w    785 calls
| JK: USO2AO                        :      0.000u      0.000s      0.001w    785 calls
| JK: JK                            :      0.000u      0.000s      1.101w    785 calls
| | PK computes JK                  :      0.000u      0.000s      1.099w    785 calls
| JK: AO2USO                        :      0.000u      0.000s      0.000w    785 calls
HF: Form F                          :      0.000u      0.000s      0.005w    785 calls
HF: Form D                          :      0.000u      0.000s      0.004w    785 calls
HF: DIIS                            :      0.000u      0.000s      2.014w    703 calls
HF: Form C                          :      0.000u      0.000s      0.312w    703 calls
Grad: V T Perturb                   :      0.000u      0.000s      0.100w     79 calls
Grad: S                             :      0.000u      0.000s      0.015w     79 calls
Grad: JK                            :      0.000u      0.000s     27.411w     79 calls
| Libint2ERI::Libint2ERI            :      0.000u      0.000s      0.561w     79 calls
Grad: XC                            :      0.000u      0.000s      0.000w     79 calls

**************************************************************************************
